# vtk DataFile Version 2.0
helix_far_field
ASCII
DATASET POLYDATA
POINTS     10368 float
   0.00000E+00   0.00000E+00   0.64618E+01
   0.50560E+00   0.00000E+00   0.57791E+01
   0.49595E+00   0.43390E-01   0.56904E+01
   0.00000E+00   0.00000E+00   0.64618E+01
   0.00000E+00   0.00000E+00   0.64618E+01
   0.49595E+00   0.43390E-01   0.56904E+01
   0.48325E+00   0.85210E-01   0.56088E+01
   0.00000E+00   0.00000E+00   0.64618E+01
   0.00000E+00   0.00000E+00   0.64618E+01
   0.48325E+00   0.85210E-01   0.56088E+01
   0.46777E+00   0.12534E+00   0.55352E+01
   0.00000E+00   0.00000E+00   0.64618E+01
   0.00000E+00   0.00000E+00   0.64618E+01
   0.46777E+00   0.12534E+00   0.55352E+01
   0.44974E+00   0.16369E+00   0.54705E+01
   0.00000E+00   0.00000E+00   0.64618E+01
   0.00000E+00   0.00000E+00   0.64618E+01
   0.44974E+00   0.16369E+00   0.54705E+01
   0.42939E+00   0.20023E+00   0.54154E+01
   0.00000E+00   0.00000E+00   0.64618E+01
   0.00000E+00   0.00000E+00   0.64618E+01
   0.42939E+00   0.20023E+00   0.54154E+01
   0.40690E+00   0.23492E+00   0.53704E+01
   0.00000E+00   0.00000E+00   0.64618E+01
   0.00000E+00   0.00000E+00   0.64618E+01
   0.40690E+00   0.23492E+00   0.53704E+01
   0.38241E+00   0.26776E+00   0.53359E+01
   0.00000E+00   0.00000E+00   0.64618E+01
   0.00000E+00   0.00000E+00   0.64618E+01
   0.38241E+00   0.26776E+00   0.53359E+01
   0.35603E+00   0.29874E+00   0.53123E+01
   0.00000E+00   0.00000E+00   0.64618E+01
   0.00000E+00   0.00000E+00   0.64618E+01
   0.35603E+00   0.29874E+00   0.53123E+01
   0.32785E+00   0.32785E+00   0.52995E+01
   0.00000E+00   0.00000E+00   0.64618E+01
   0.00000E+00   0.00000E+00   0.64618E+01
   0.32785E+00   0.32785E+00   0.52995E+01
   0.29791E+00   0.35504E+00   0.52975E+01
   0.00000E+00   0.00000E+00   0.64618E+01
   0.00000E+00   0.00000E+00   0.64618E+01
   0.29791E+00   0.35504E+00   0.52975E+01
   0.26626E+00   0.38026E+00   0.53060E+01
   0.00000E+00   0.00000E+00   0.64618E+01
   0.00000E+00   0.00000E+00   0.64618E+01
   0.26626E+00   0.38026E+00   0.53060E+01
   0.23292E+00   0.40343E+00   0.53246E+01
   0.00000E+00   0.00000E+00   0.64618E+01
   0.00000E+00   0.00000E+00   0.64618E+01
   0.23292E+00   0.40343E+00   0.53246E+01
   0.19792E+00   0.42444E+00   0.53529E+01
   0.00000E+00   0.00000E+00   0.64618E+01
   0.00000E+00   0.00000E+00   0.64618E+01
   0.19792E+00   0.42444E+00   0.53529E+01
   0.16129E+00   0.44314E+00   0.53902E+01
   0.00000E+00   0.00000E+00   0.64618E+01
   0.00000E+00   0.00000E+00   0.64618E+01
   0.16129E+00   0.44314E+00   0.53902E+01
   0.12309E+00   0.45938E+00   0.54359E+01
   0.00000E+00   0.00000E+00   0.64618E+01
   0.00000E+00   0.00000E+00   0.64618E+01
   0.12309E+00   0.45938E+00   0.54359E+01
   0.83395E-01   0.47296E+00   0.54893E+01
   0.00000E+00   0.00000E+00   0.64618E+01
   0.00000E+00   0.00000E+00   0.64618E+01
   0.83395E-01   0.47296E+00   0.54893E+01
   0.42317E-01   0.48368E+00   0.55496E+01
   0.00000E+00   0.00000E+00   0.64618E+01
   0.00000E+00   0.00000E+00   0.64618E+01
   0.42317E-01   0.48368E+00   0.55496E+01
   0.30086E-16   0.49134E+00   0.56161E+01
   0.00000E+00   0.00000E+00   0.64618E+01
   0.00000E+00   0.00000E+00   0.64618E+01
   0.30086E-16   0.49134E+00   0.56161E+01
  -0.43371E-01   0.49574E+00   0.56879E+01
   0.00000E+00   0.00000E+00   0.64618E+01
   0.00000E+00   0.00000E+00   0.64618E+01
  -0.43371E-01   0.49574E+00   0.56879E+01
  -0.87576E-01   0.49667E+00   0.57645E+01
   0.00000E+00   0.00000E+00   0.64618E+01
   0.00000E+00   0.00000E+00   0.64618E+01
  -0.87576E-01   0.49667E+00   0.57645E+01
  -0.13235E+00   0.49395E+00   0.58450E+01
   0.00000E+00   0.00000E+00   0.64618E+01
   0.00000E+00   0.00000E+00   0.64618E+01
  -0.13235E+00   0.49395E+00   0.58450E+01
  -0.17741E+00   0.48742E+00   0.59288E+01
   0.00000E+00   0.00000E+00   0.64618E+01
   0.00000E+00   0.00000E+00   0.64618E+01
  -0.17741E+00   0.48742E+00   0.59288E+01
  -0.22241E+00   0.47695E+00   0.60152E+01
   0.00000E+00   0.00000E+00   0.64618E+01
   0.00000E+00   0.00000E+00   0.64618E+01
  -0.22241E+00   0.47695E+00   0.60152E+01
  -0.26700E+00   0.46245E+00   0.61036E+01
   0.00000E+00   0.00000E+00   0.64618E+01
   0.00000E+00   0.00000E+00   0.64618E+01
  -0.26700E+00   0.46245E+00   0.61036E+01
  -0.31079E+00   0.44386E+00   0.61934E+01
   0.00000E+00   0.00000E+00   0.64618E+01
   0.00000E+00   0.00000E+00   0.64618E+01
  -0.31079E+00   0.44386E+00   0.61934E+01
  -0.35339E+00   0.42116E+00   0.62840E+01
   0.00000E+00   0.00000E+00   0.64618E+01
   0.00000E+00   0.00000E+00   0.64618E+01
  -0.35339E+00   0.42116E+00   0.62840E+01
  -0.39438E+00   0.39438E+00   0.63750E+01
   0.00000E+00   0.00000E+00   0.64618E+01
   0.00000E+00   0.00000E+00   0.64618E+01
  -0.39438E+00   0.39438E+00   0.63750E+01
  -0.43333E+00   0.36361E+00   0.64657E+01
   0.00000E+00   0.00000E+00   0.64618E+01
   0.00000E+00   0.00000E+00   0.64618E+01
  -0.43333E+00   0.36361E+00   0.64657E+01
  -0.46983E+00   0.32898E+00   0.65557E+01
   0.00000E+00   0.00000E+00   0.64618E+01
   0.00000E+00   0.00000E+00   0.64618E+01
  -0.46983E+00   0.32898E+00   0.65557E+01
  -0.50344E+00   0.29066E+00   0.66446E+01
   0.00000E+00   0.00000E+00   0.64618E+01
   0.00000E+00   0.00000E+00   0.64618E+01
  -0.50344E+00   0.29066E+00   0.66446E+01
  -0.53378E+00   0.24891E+00   0.67319E+01
   0.00000E+00   0.00000E+00   0.64618E+01
   0.00000E+00   0.00000E+00   0.64618E+01
  -0.53378E+00   0.24891E+00   0.67319E+01
  -0.56045E+00   0.20399E+00   0.68170E+01
   0.00000E+00   0.00000E+00   0.64618E+01
   0.00000E+00   0.00000E+00   0.64618E+01
  -0.56045E+00   0.20399E+00   0.68170E+01
  -0.58308E+00   0.15624E+00   0.68997E+01
   0.00000E+00   0.00000E+00   0.64618E+01
   0.00000E+00   0.00000E+00   0.64618E+01
  -0.58308E+00   0.15624E+00   0.68997E+01
  -0.60135E+00   0.10603E+00   0.69795E+01
   0.00000E+00   0.00000E+00   0.64618E+01
   0.00000E+00   0.00000E+00   0.64618E+01
  -0.60135E+00   0.10603E+00   0.69795E+01
  -0.61497E+00   0.53803E-01   0.70560E+01
   0.00000E+00   0.00000E+00   0.64618E+01
   0.00000E+00   0.00000E+00   0.64618E+01
  -0.61497E+00   0.53803E-01   0.70560E+01
  -0.62368E+00   0.76379E-16   0.71287E+01
   0.00000E+00   0.00000E+00   0.64618E+01
   0.00000E+00   0.00000E+00   0.64618E+01
  -0.62368E+00   0.76379E-16   0.71287E+01
  -0.62729E+00  -0.54881E-01   0.71974E+01
   0.00000E+00   0.00000E+00   0.64618E+01
   0.00000E+00   0.00000E+00   0.64618E+01
  -0.62729E+00  -0.54881E-01   0.71974E+01
  -0.62565E+00  -0.11032E+00   0.72616E+01
   0.00000E+00   0.00000E+00   0.64618E+01
   0.00000E+00   0.00000E+00   0.64618E+01
  -0.62565E+00  -0.11032E+00   0.72616E+01
  -0.61867E+00  -0.16577E+00   0.73209E+01
   0.00000E+00   0.00000E+00   0.64618E+01
   0.00000E+00   0.00000E+00   0.64618E+01
  -0.61867E+00  -0.16577E+00   0.73209E+01
  -0.60632E+00  -0.22068E+00   0.73751E+01
   0.00000E+00   0.00000E+00   0.64618E+01
   0.00000E+00   0.00000E+00   0.64618E+01
  -0.60632E+00  -0.22068E+00   0.73751E+01
  -0.58864E+00  -0.27449E+00   0.74237E+01
   0.00000E+00   0.00000E+00   0.64618E+01
   0.00000E+00   0.00000E+00   0.64618E+01
  -0.58864E+00  -0.27449E+00   0.74237E+01
  -0.56571E+00  -0.32661E+00   0.74664E+01
   0.00000E+00   0.00000E+00   0.64618E+01
   0.00000E+00   0.00000E+00   0.64618E+01
  -0.56571E+00  -0.32661E+00   0.74664E+01
  -0.53772E+00  -0.37651E+00   0.75030E+01
   0.00000E+00   0.00000E+00   0.64618E+01
   0.00000E+00   0.00000E+00   0.64618E+01
  -0.53772E+00  -0.37651E+00   0.75030E+01
  -0.50487E+00  -0.42364E+00   0.75332E+01
   0.00000E+00   0.00000E+00   0.64618E+01
   0.00000E+00   0.00000E+00   0.64618E+01
  -0.50487E+00  -0.42364E+00   0.75332E+01
  -0.46748E+00  -0.46748E+00   0.75566E+01
   0.00000E+00   0.00000E+00   0.64618E+01
   0.00000E+00   0.00000E+00   0.64618E+01
  -0.46748E+00  -0.46748E+00   0.75566E+01
  -0.42588E+00  -0.50754E+00   0.75729E+01
   0.00000E+00   0.00000E+00   0.64618E+01
   0.00000E+00   0.00000E+00   0.64618E+01
  -0.42588E+00  -0.50754E+00   0.75729E+01
  -0.38048E+00  -0.54338E+00   0.75821E+01
   0.00000E+00   0.00000E+00   0.64618E+01
   0.00000E+00   0.00000E+00   0.64618E+01
  -0.38048E+00  -0.54338E+00   0.75821E+01
  -0.33175E+00  -0.57460E+00   0.75838E+01
   0.00000E+00   0.00000E+00   0.64618E+01
   0.00000E+00   0.00000E+00   0.64618E+01
  -0.33175E+00  -0.57460E+00   0.75838E+01
  -0.28019E+00  -0.60087E+00   0.75779E+01
   0.00000E+00   0.00000E+00   0.64618E+01
   0.00000E+00   0.00000E+00   0.64618E+01
  -0.28019E+00  -0.60087E+00   0.75779E+01
  -0.22635E+00  -0.62188E+00   0.75643E+01
   0.00000E+00   0.00000E+00   0.64618E+01
   0.00000E+00   0.00000E+00   0.64618E+01
  -0.22635E+00  -0.62188E+00   0.75643E+01
  -0.17080E+00  -0.63743E+00   0.75429E+01
   0.00000E+00   0.00000E+00   0.64618E+01
   0.00000E+00   0.00000E+00   0.64618E+01
  -0.17080E+00  -0.63743E+00   0.75429E+01
  -0.11415E+00  -0.64737E+00   0.75136E+01
   0.00000E+00   0.00000E+00   0.64618E+01
   0.00000E+00   0.00000E+00   0.64618E+01
  -0.11415E+00  -0.64737E+00   0.75136E+01
  -0.57009E-01  -0.65162E+00   0.74765E+01
   0.00000E+00   0.00000E+00   0.64618E+01
   0.00000E+00   0.00000E+00   0.64618E+01
  -0.57009E-01  -0.65162E+00   0.74765E+01
  -0.11944E-15  -0.65018E+00   0.74315E+01
   0.00000E+00   0.00000E+00   0.64618E+01
   0.00000E+00   0.00000E+00   0.64618E+01
  -0.11944E-15  -0.65018E+00   0.74315E+01
   0.56266E-01  -0.64312E+00   0.73790E+01
   0.00000E+00   0.00000E+00   0.64618E+01
   0.00000E+00   0.00000E+00   0.64618E+01
   0.56266E-01  -0.64312E+00   0.73790E+01
   0.11119E+00  -0.63059E+00   0.73189E+01
   0.00000E+00   0.00000E+00   0.64618E+01
   0.00000E+00   0.00000E+00   0.64618E+01
   0.11119E+00  -0.63059E+00   0.73189E+01
   0.16420E+00  -0.61281E+00   0.72516E+01
   0.00000E+00   0.00000E+00   0.64618E+01
   0.00000E+00   0.00000E+00   0.64618E+01
   0.16420E+00  -0.61281E+00   0.72516E+01
[...]
POINT_DATA      10368
SCALARS Field_on_cells float 1
LOOKUP_TABLE field_on_cells_table
   0.32309E+00
   0.29006E+00
   0.28561E+00
   0.32309E+00
   0.32309E+00
   0.28561E+00
   0.28151E+00
   0.32309E+00
   0.32309E+00
   0.28151E+00
   0.27782E+00
   0.32309E+00
   0.32309E+00
   0.27782E+00
   0.27457E+00
   0.32309E+00
   0.32309E+00
   0.27457E+00
   0.27180E+00
   0.32309E+00
   0.32309E+00
   0.27180E+00
   0.26954E+00
   0.32309E+00
   0.32309E+00
   0.26954E+00
   0.26782E+00
   0.32309E+00
   0.32309E+00
   0.26782E+00
   0.26663E+00
   0.32309E+00
   0.32309E+00
   0.26663E+00
   0.26599E+00
   0.32309E+00
   0.32309E+00
   0.26599E+00
   0.26588E+00
   0.32309E+00
   0.32309E+00
   0.26588E+00
   0.26631E+00
   0.32309E+00
   0.32309E+00
   0.26631E+00
   0.26725E+00
   0.32309E+00
   0.32309E+00
   0.26725E+00
   0.26867E+00
   0.32309E+00
   0.32309E+00
   0.26867E+00
   0.27054E+00
   0.32309E+00
   0.32309E+00
   0.27054E+00
   0.27283E+00
   0.32309E+00
   0.32309E+00
   0.27283E+00
   0.27551E+00
   0.32309E+00
   0.32309E+00
   0.27551E+00
   0.27854E+00
   0.32309E+00
   0.32309E+00
   0.27854E+00
   0.28188E+00
   0.32309E+00
   0.32309E+00
   0.28188E+00
   0.28548E+00
   0.32309E+00
   0.32309E+00
   0.28548E+00
   0.28933E+00
   0.32309E+00
   0.32309E+00
   0.28933E+00
   0.29337E+00
   0.32309E+00
   0.32309E+00
   0.29337E+00
   0.29757E+00
   0.32309E+00
   0.32309E+00
   0.29757E+00
   0.30191E+00
   0.32309E+00
   0.32309E+00
   0.30191E+00
   0.30634E+00
   0.32309E+00
   0.32309E+00
   0.30634E+00
   0.31085E+00
   0.32309E+00
   0.32309E+00
   0.31085E+00
   0.31540E+00
   0.32309E+00
   0.32309E+00
   0.31540E+00
   0.31997E+00
   0.32309E+00
   0.32309E+00
   0.31997E+00
   0.32452E+00
   0.32309E+00
   0.32309E+00
   0.32452E+00
   0.32904E+00
   0.32309E+00
   0.32309E+00
   0.32904E+00
   0.33350E+00
   0.32309E+00
   0.32309E+00
   0.33350E+00
   0.33788E+00
   0.32309E+00
   0.32309E+00
   0.33788E+00
   0.34215E+00
   0.32309E+00
   0.32309E+00
   0.34215E+00
   0.34630E+00
   0.32309E+00
   0.32309E+00
   0.34630E+00
   0.35031E+00
   0.32309E+00
   0.32309E+00
   0.35031E+00
   0.35415E+00
   0.32309E+00
   0.32309E+00
   0.35415E+00
   0.35780E+00
   0.32309E+00
   0.32309E+00
   0.35780E+00
   0.36124E+00
   0.32309E+00
   0.32309E+00
   0.36124E+00
   0.36446E+00
   0.32309E+00
   0.32309E+00
   0.36446E+00
   0.36744E+00
   0.32309E+00
   0.32309E+00
   0.36744E+00
   0.37016E+00
   0.32309E+00
   0.32309E+00
   0.37016E+00
   0.37260E+00
   0.32309E+00
   0.32309E+00
   0.37260E+00
   0.37475E+00
   0.32309E+00
   0.32309E+00
   0.37475E+00
   0.37659E+00
   0.32309E+00
   0.32309E+00
   0.37659E+00
   0.37810E+00
   0.32309E+00
   0.32309E+00
   0.37810E+00
   0.37927E+00
   0.32309E+00
   0.32309E+00
   0.37927E+00
   0.38009E+00
   0.32309E+00
   0.32309E+00
   0.38009E+00
   0.38055E+00
   0.32309E+00
   0.32309E+00
   0.38055E+00
   0.38064E+00
   0.32309E+00
   0.32309E+00
   0.38064E+00
   0.38034E+00
   0.32309E+00
   0.32309E+00
   0.38034E+00
   0.37966E+00
   0.32309E+00
   0.32309E+00
   0.37966E+00
   0.37859E+00
   0.32309E+00
   0.32309E+00
   0.37859E+00
   0.37712E+00
   0.32309E+00
   0.32309E+00
   0.37712E+00
   0.37525E+00
   0.32309E+00
   0.32309E+00
   0.37525E+00
   0.37300E+00
   0.32309E+00
   0.32309E+00
   0.37300E+00
   0.37036E+00
   0.32309E+00
   0.32309E+00
   0.37036E+00
   0.36734E+00
   0.32309E+00
   0.32309E+00
   0.36734E+00
   0.36396E+00
   0.32309E+00
   0.32309E+00
   0.36396E+00
   0.36024E+00
   0.32309E+00
   0.32309E+00
   0.36024E+00
   0.35619E+00
   0.32309E+00
   0.32309E+00
   0.35619E+00
   0.35184E+00
   0.32309E+00
   0.32309E+00
   0.35184E+00
   0.34721E+00
   0.32309E+00
   0.32309E+00
   0.34721E+00
   0.34235E+00
   0.32309E+00
   0.32309E+00
   0.34235E+00
   0.33728E+00
   0.32309E+00
   0.32309E+00
   0.33728E+00
   0.33204E+00
   0.32309E+00
   0.32309E+00
   0.33204E+00
   0.32668E+00
   0.32309E+00
   0.32309E+00
   0.32668E+00
   0.32125E+00
   0.32309E+00
   0.32309E+00
   0.32125E+00
   0.31580E+00
   0.32309E+00
   0.32309E+00
   0.31580E+00
   0.31037E+00
   0.32309E+00
   0.32309E+00
   0.31037E+00
   0.30503E+00
   0.32309E+00
   0.32309E+00
   0.30503E+00
   0.29982E+00
   0.32309E+00
   0.32309E+00
   0.29982E+00
   0.29482E+00
   0.32309E+00
   0.32309E+00
   0.29482E+00
   0.29006E+00
   0.32309E+00
   0.29006E+00
   0.26008E+00
   0.25003E+00
   0.28561E+00
   0.28561E+00
   0.25003E+00
   0.24080E+00
   0.28151E+00
   0.28151E+00
   0.24080E+00
   0.23256E+00
   0.27782E+00
   0.27782E+00
   0.23256E+00
   0.22547E+00
   0.27457E+00
   0.27457E+00
   0.22547E+00
   0.21965E+00
   0.27180E+00
   0.27180E+00
   0.21965E+00
   0.21522E+00
   0.26954E+00
   0.26954E+00
   0.21522E+00
   0.21223E+00
   0.26782E+00
   0.26782E+00
   0.21223E+00
   0.21071E+00
   0.26663E+00
   0.26663E+00
   0.21071E+00
   0.21062E+00
   0.26599E+00
   0.26599E+00
   0.21062E+00
   0.21189E+00
   0.26588E+00
   0.26588E+00
   0.21189E+00
   0.21441E+00
   0.26631E+00
   0.26631E+00
   0.21441E+00
   0.21806E+00
   0.26725E+00
   0.26725E+00
   0.21806E+00
   0.22268E+00
   0.26867E+00
   0.26867E+00
   0.22268E+00
   0.22813E+00
   0.27054E+00
   0.27054E+00
   0.22813E+00
   0.23426E+00
   0.27283E+00
   0.27283E+00
   0.23426E+00
   0.24094E+00
   0.27551E+00
   0.27551E+00
   0.24094E+00
   0.24806E+00
   0.27854E+00
   0.27854E+00
   0.24806E+00
   0.25552E+00
   0.28188E+00
   0.28188E+00
   0.25552E+00
   0.26323E+00
   0.28548E+00
   0.28548E+00
   0.26323E+00
   0.27112E+00
   0.28933E+00
   0.28933E+00
   0.27112E+00
   0.27914E+00
   0.29337E+00
   0.29337E+00
   0.27914E+00
   0.28724E+00
   0.29757E+00
   0.29757E+00
   0.28724E+00
   0.29538E+00
   0.30191E+00
   0.30191E+00
   0.29538E+00
   0.30353E+00
   0.30634E+00
   0.30634E+00
   0.30353E+00
   0.31166E+00
   0.31085E+00
   0.31085E+00
   0.31166E+00
   0.31975E+00
   0.31540E+00
   0.31540E+00
   0.31975E+00
   0.32777E+00
   0.31997E+00
   0.31997E+00
   0.32777E+00
   0.33570E+00
   0.32452E+00
   0.32452E+00
   0.33570E+00
   0.34352E+00
   0.32904E+00
   0.32904E+00
   0.34352E+00
   0.35120E+00
   0.33350E+00
   0.33350E+00
   0.35120E+00
   0.35873E+00
   0.33788E+00
   0.33788E+00
   0.35873E+00
   0.36608E+00
   0.34215E+00
   0.34215E+00
   0.36608E+00
   0.37322E+00
   0.34630E+00
   0.34630E+00
   0.37322E+00
   0.38013E+00
   0.35031E+00
   0.35031E+00
   0.38013E+00
   0.38678E+00
   0.35415E+00
   0.35415E+00
   0.38678E+00
   0.39315E+00
   0.35780E+00
   0.35780E+00
   0.39315E+00
   0.39921E+00
   0.36124E+00
   0.36124E+00
   0.39921E+00
   0.40493E+00
   0.36446E+00
   0.36446E+00
   0.40493E+00
   0.41028E+00
   0.36744E+00
   0.36744E+00
   0.41028E+00
   0.41524E+00
   0.37016E+00
   0.37016E+00
   0.41524E+00
   0.41978E+00
   0.37260E+00
   0.37260E+00
   0.41978E+00
   0.42387E+00
   0.37475E+00
   0.37475E+00
   0.42387E+00
   0.42748E+00
   0.37659E+00
   0.37659E+00
   0.42748E+00
   0.43057E+00
   0.37810E+00
   0.37810E+00
   0.43057E+00
   0.43313E+00
   0.37927E+00
   0.37927E+00
   0.43313E+00
   0.43512E+00
   0.38009E+00
   0.38009E+00
   0.43512E+00
   0.43650E+00
   0.38055E+00
   0.38055E+00
   0.43650E+00
   0.43726E+00
   0.38064E+00
   0.38064E+00
   0.43726E+00
   0.43735E+00
   0.38034E+00
   0.38034E+00
   0.43735E+00
   0.43676E+00
   0.37966E+00
   0.37966E+00
   0.43676E+00
   0.43545E+00
   0.37859E+00
   0.37859E+00
   0.43545E+00
   0.43341E+00
   0.37712E+00
   0.37712E+00
   0.43341E+00
   0.43062E+00
   0.37525E+00
   0.37525E+00
   0.43062E+00
   0.42706E+00
   0.37300E+00
   0.37300E+00
   0.42706E+00
   0.42272E+00
   0.37036E+00
   0.37036E+00
   0.42272E+00
   0.41760E+00
   0.36734E+00
   0.36734E+00
   0.41760E+00
   0.41170E+00
   0.36396E+00
   0.36396E+00
   0.41170E+00
   0.40503E+00
   0.36024E+00
   0.36024E+00
   0.40503E+00
   0.39761E+00
   0.35619E+00
   0.35619E+00
   0.39761E+00
   0.38947E+00
   0.35184E+00
   0.35184E+00
   0.38947E+00
   0.38065E+00
   0.34721E+00
   0.34721E+00
   0.38065E+00
   0.37119E+00
   0.34235E+00
   0.34235E+00
   0.37119E+00
   0.36114E+00
   0.33728E+00
   0.33728E+00
   0.36114E+00
   0.35059E+00
   0.33204E+00
   0.33204E+00
   0.35059E+00
   0.33961E+00
   0.32668E+00
   0.32668E+00
   0.33961E+00
   0.32829E+00
   0.32125E+00
   0.32125E+00
   0.32829E+00
   0.31674E+00
   0.31580E+00
   0.31580E+00
   0.31674E+00
   0.30508E+00
   0.31037E+00
   0.31037E+00
   0.30508E+00
   0.29343E+00
   0.30503E+00
   0.30503E+00
   0.29343E+00
   0.28194E+00
   0.29982E+00
   0.29982E+00
   0.28194E+00
   0.27077E+00
   0.29482E+00
   0.29482E+00
   0.27077E+00
   0.26008E+00
   0.29006E+00
   0.26008E+00
   0.23500E+00
   0.21826E+00
   0.25003E+00
   0.25003E+00
   0.21826E+00
   0.20278E+00
   0.24080E+00
   0.24080E+00
   0.20278E+00
   0.18901E+00
   0.23256E+00
   0.23256E+00
   0.18901E+00
   0.17739E+00
   0.22547E+00
   0.22547E+00
   0.17739E+00
   0.16837E+00
   0.21965E+00
   0.21965E+00
   0.16837E+00
   0.16228E+00
   0.21522E+00
   0.21522E+00
   0.16228E+00
   0.15932E+00
   0.21223E+00
   0.21223E+00
   0.15932E+00
   0.15948E+00
   0.21071E+00
   0.21071E+00
   0.15948E+00
   0.16249E+00
   0.21062E+00
   0.21062E+00
   0.16249E+00
   0.16796E+00
   0.21189E+00
   0.21189E+00
   0.16796E+00
   0.17540E+00
   0.21441E+00
   0.21441E+00
   0.17540E+00
   0.18431E+00
   0.21806E+00
   0.21806E+00
   0.18431E+00
   0.19426E+00
   0.22268E+00
   0.22268E+00
   0.19426E+00
   0.20490E+00
   0.22813E+00
   0.22813E+00
   0.20490E+00
   0.21594E+00
   0.23426E+00
   0.23426E+00
   0.21594E+00
   0.22718E+00
   0.24094E+00
   0.24094E+00
   0.22718E+00
   0.23846E+00
   0.24806E+00
   0.24806E+00
   0.23846E+00
   0.24970E+00
   0.25552E+00
   0.25552E+00
   0.24970E+00
   0.26082E+00
   0.26323E+00
   0.26323E+00
   0.26082E+00
   0.27180E+00
   0.27112E+00
   0.27112E+00
   0.27180E+00
   0.28263E+00
   0.27914E+00
   0.27914E+00
   0.28263E+00
   0.29331E+00
   0.28724E+00
   0.28724E+00
   0.29331E+00
   0.30385E+00
   0.29538E+00
   0.29538E+00
   0.30385E+00
   0.31426E+00
   0.30353E+00
   0.30353E+00
   0.31426E+00
   0.32456E+00
   0.31166E+00
   0.31166E+00
   0.32456E+00
   0.33474E+00
   0.31975E+00
   0.31975E+00
   0.33474E+00
   0.34482E+00
   0.32777E+00
   0.32777E+00
   0.34482E+00
   0.35479E+00
   0.33570E+00
   0.33570E+00
   0.35479E+00
   0.36464E+00
   0.34352E+00
   0.34352E+00
   0.36464E+00
   0.37436E+00
   0.35120E+00
   0.35120E+00
   0.37436E+00
   0.38392E+00
   0.35873E+00
   0.35873E+00
   0.38392E+00
   0.39329E+00
   0.36608E+00
   0.36608E+00
   0.39329E+00
   0.40246E+00
   0.37322E+00
   0.37322E+00
   0.40246E+00
   0.41138E+00
   0.38013E+00
   0.38013E+00
   0.41138E+00
   0.42002E+00
   0.38678E+00
   0.38678E+00
   0.42002E+00
   0.42836E+00
   0.39315E+00
   0.39315E+00
   0.42836E+00
   0.43636E+00
   0.39921E+00
   0.39921E+00
   0.43636E+00
   0.44398E+00
   0.40493E+00
   0.40493E+00
   0.44398E+00
   0.45119E+00
   0.41028E+00
   0.41028E+00
   0.45119E+00
   0.45797E+00
   0.41524E+00
   0.41524E+00
   0.45797E+00
   0.46426E+00
   0.41978E+00
   0.41978E+00
   0.46426E+00
   0.47005E+00
   0.42387E+00
   0.42387E+00
   0.47005E+00
   0.47528E+00
   0.42748E+00
   0.42748E+00
   0.47528E+00
   0.47991E+00
   0.43057E+00
   0.43057E+00
   0.47991E+00
   0.48391E+00
   0.43313E+00
   0.43313E+00
   0.48391E+00
   0.48721E+00
   0.43512E+00
   0.43512E+00
   0.48721E+00
   0.48978E+00
   0.43650E+00
   0.43650E+00
   0.48978E+00
   0.49155E+00
   0.43726E+00
   0.43726E+00
   0.49155E+00
   0.49246E+00
   0.43735E+00
   0.43735E+00
   0.49246E+00
   0.49248E+00
   0.43676E+00
   0.43676E+00
   0.49248E+00
   0.49153E+00
   0.43545E+00
   0.43545E+00
   0.49153E+00
   0.48956E+00
   0.43341E+00
   0.43341E+00
   0.48956E+00
   0.48654E+00
   0.43062E+00
   0.43062E+00
   0.48654E+00
   0.48240E+00
   0.42706E+00
   0.42706E+00
   0.48240E+00
   0.47712E+00
   0.42272E+00
   0.42272E+00
   0.47712E+00
   0.47067E+00
   0.41760E+00
   0.41760E+00
   0.47067E+00
   0.46302E+00
   0.41170E+00
   0.41170E+00
   0.46302E+00
   0.45417E+00
   0.40503E+00
   0.40503E+00
   0.45417E+00
   0.44411E+00
   0.39761E+00
   0.39761E+00
   0.44411E+00
   0.43288E+00
   0.38947E+00
   0.38947E+00
   0.43288E+00
   0.42049E+00
   0.38065E+00
   0.38065E+00
   0.42049E+00
   0.40699E+00
   0.37119E+00
   0.37119E+00
   0.40699E+00
   0.39245E+00
   0.36114E+00
   0.36114E+00
   0.39245E+00
   0.37694E+00
   0.35059E+00
   0.35059E+00
   0.37694E+00
   0.36058E+00
   0.33961E+00
   0.33961E+00
   0.36058E+00
   0.34346E+00
   0.32829E+00
   0.32829E+00
   0.34346E+00
   0.32575E+00
   0.31674E+00
   0.31674E+00
   0.32575E+00
   0.30760E+00
   0.30508E+00
   0.30508E+00
   0.30760E+00
   0.28921E+00
   0.29343E+00
   0.29343E+00
   0.28921E+00
   0.27080E+00
   0.28194E+00
   0.28194E+00
   0.27080E+00
   0.25263E+00
   0.27077E+00
   0.27077E+00
   0.25263E+00
   0.23500E+00
   0.26008E+00
   0.23500E+00
   0.21719E+00
   0.19314E+00
   0.21826E+00
   0.21826E+00
   0.19314E+00
   0.17063E+00
   0.20278E+00
   0.20278E+00
   0.17063E+00
   0.15049E+00
   0.18901E+00
   0.18901E+00
   0.15049E+00
   0.13385E+00
   0.17739E+00
   0.17739E+00
   0.13385E+00
   0.12197E+00
   0.16837E+00
   0.16837E+00
   0.12197E+00
   0.11600E+00
   0.16228E+00
   0.16228E+00
   0.11600E+00
   0.11639E+00
   0.15932E+00
   0.15932E+00
   0.11639E+00
   0.12251E+00
   0.15948E+00
   0.15948E+00
   0.12251E+00
   0.13300E+00
   0.16249E+00
   0.16249E+00
   0.13300E+00
   0.14634E+00
   0.16796E+00
   0.16796E+00
   0.14634E+00
   0.16130E+00
   0.17540E+00
   0.17540E+00
   0.16130E+00
   0.17700E+00
   0.18431E+00
   0.18431E+00
   0.17700E+00
   0.19284E+00
   0.19426E+00
   0.19426E+00
   0.19284E+00
   0.20846E+00
   0.20490E+00
   0.20490E+00
   0.20846E+00
   0.22361E+00
   0.21594E+00
   0.21594E+00
   0.22361E+00
   0.23820E+00
   0.22718E+00
   0.22718E+00
   0.23820E+00
   0.25215E+00
   0.23846E+00
   0.23846E+00
   0.25215E+00
   0.26549E+00
   0.24970E+00
   0.24970E+00
   0.26549E+00
   0.27824E+00
   0.26082E+00
   0.26082E+00
   0.27824E+00
   0.29048E+00
   0.27180E+00
   0.27180E+00
   0.29048E+00
   0.30228E+00
   0.28263E+00
   0.28263E+00
   0.30228E+00
   0.31374E+00
   0.29331E+00
   0.29331E+00
   0.31374E+00
   0.32495E+00
   0.30385E+00
   0.30385E+00
   0.32495E+00
   0.33598E+00
   0.31426E+00
   0.31426E+00
   0.33598E+00
   0.34689E+00
   0.32456E+00
   0.32456E+00
   0.34689E+00
   0.35776E+00
   0.33474E+00
   0.33474E+00
   0.35776E+00
   0.36859E+00
   0.34482E+00
   0.34482E+00
   0.36859E+00
   0.37942E+00
   0.35479E+00
   0.35479E+00
   0.37942E+00
   0.39023E+00
   0.36464E+00
   0.36464E+00
   0.39023E+00
   0.40101E+00
   0.37436E+00
   0.37436E+00
   0.40101E+00
   0.41172E+00
   0.38392E+00
   0.38392E+00
   0.41172E+00
   0.42233E+00
   0.39329E+00
   0.39329E+00
   0.42233E+00
   0.43278E+00
   0.40246E+00
   0.40246E+00
   0.43278E+00
   0.44304E+00
   0.41138E+00
   0.41138E+00
   0.44304E+00
   0.45305E+00
   0.42002E+00
   0.42002E+00
   0.45305E+00
   0.46278E+00
   0.42836E+00
   0.42836E+00
   0.46278E+00
   0.47218E+00
   0.43636E+00
   0.43636E+00
   0.47218E+00
   0.48121E+00
   0.44398E+00
   0.44398E+00
   0.48121E+00
   0.48986E+00
   0.45119E+00
   0.45119E+00
   0.48986E+00
   0.49806E+00
   0.45797E+00
   0.45797E+00
   0.49806E+00
   0.50581E+00
   0.46426E+00
   0.46426E+00
   0.50581E+00
   0.51304E+00
   0.47005E+00
   0.47005E+00
   0.51304E+00
   0.51972E+00
   0.47528E+00
   0.47528E+00
   0.51972E+00
   0.52581E+00
   0.47991E+00
   0.47991E+00
   0.52581E+00
   0.53123E+00
   0.48391E+00
   0.48391E+00
   0.53123E+00
   0.53593E+00
   0.48721E+00
   0.48721E+00
   0.53593E+00
   0.53982E+00
   0.48978E+00
   0.48978E+00
   0.53982E+00
   0.54283E+00
   0.49155E+00
   0.49155E+00
   0.54283E+00
   0.54487E+00
   0.49246E+00
   0.49246E+00
   0.54487E+00
   0.54585E+00
   0.49248E+00
   0.49248E+00
   0.54585E+00
   0.54567E+00
   0.49153E+00
   0.49153E+00
   0.54567E+00
   0.54425E+00
   0.48956E+00
   0.48956E+00
   0.54425E+00
   0.54150E+00
   0.48654E+00
   0.48654E+00
   0.54150E+00
   0.53734E+00
   0.48240E+00
   0.48240E+00
   0.53734E+00
   0.53170E+00
   0.47712E+00
   0.47712E+00
   0.53170E+00
   0.52451E+00
   0.47067E+00
   0.47067E+00
   0.52451E+00
   0.51572E+00
   0.46302E+00
   0.46302E+00
   0.51572E+00
   0.50531E+00
   0.45417E+00
   0.45417E+00
   0.50531E+00
   0.49325E+00
   0.44411E+00
   0.44411E+00
   0.49325E+00
   0.47954E+00
   0.43288E+00
   0.43288E+00
   0.47954E+00
   0.46421E+00
   0.42049E+00
   0.42049E+00
   0.46421E+00
   0.44729E+00
   0.40699E+00
   0.40699E+00
   0.44729E+00
   0.42885E+00
   0.39245E+00
   0.39245E+00
   0.42885E+00
   0.40897E+00
   0.37694E+00
   0.37694E+00
   0.40897E+00
   0.38775E+00
   0.36058E+00
   0.36058E+00
   0.38775E+00
   0.36534E+00
   0.34346E+00
   0.34346E+00
   0.36534E+00
   0.34189E+00
   0.32575E+00
   0.32575E+00
   0.34189E+00
   0.31759E+00
   0.30760E+00
   0.30760E+00
   0.31759E+00
   0.29267E+00
   0.28921E+00
   0.28921E+00
   0.29267E+00
   0.26740E+00
   0.27080E+00
   0.27080E+00
   0.26740E+00
   0.24211E+00
   0.25263E+00
   0.25263E+00
   0.24211E+00
   0.21719E+00
   0.23500E+00
   0.21719E+00
   0.20913E+00
   0.17851E+00
   0.19314E+00
   0.19314E+00
   0.17851E+00
   0.14960E+00
   0.17063E+00
   0.17063E+00
   0.14960E+00
   0.12379E+00
   0.15049E+00
   0.15049E+00
   0.12379E+00
   0.10332E+00
   0.13385E+00
   0.13385E+00
   0.10332E+00
   0.91358E-01
   0.12197E+00
   0.12197E+00
   0.91358E-01
   0.90478E-01
   0.11600E+00
   0.11600E+00
   0.90478E-01
   0.99978E-01
   0.11639E+00
   0.11639E+00
   0.99978E-01
   0.11634E+00
   0.12251E+00
   0.12251E+00
   0.11634E+00
   0.13617E+00
   0.13300E+00
   0.13300E+00
   0.13617E+00
   0.15728E+00
   0.14634E+00
   0.14634E+00
   0.15728E+00
   0.17846E+00
   0.16130E+00
   0.16130E+00
   0.17846E+00
   0.19902E+00
   0.17700E+00
   0.17700E+00
   0.19902E+00
   0.21859E+00
   0.19284E+00
   0.19284E+00
   0.21859E+00
   0.23698E+00
   0.20846E+00
   0.20846E+00
   0.23698E+00
   0.25410E+00
   0.22361E+00
   0.22361E+00
   0.25410E+00
   0.26996E+00
   0.23820E+00
   0.23820E+00
   0.26996E+00
   0.28461E+00
   0.25215E+00
   0.25215E+00
   0.28461E+00
   0.29817E+00
   0.26549E+00
   0.26549E+00
   0.29817E+00
   0.31075E+00
   0.27824E+00
   0.27824E+00
   0.31075E+00
   0.32254E+00
   0.29048E+00
   0.29048E+00
   0.32254E+00
   0.33369E+00
   0.30228E+00
   0.30228E+00
   0.33369E+00
   0.34440E+00
   0.31374E+00
   0.31374E+00
   0.34440E+00
   0.35483E+00
   0.32495E+00
   0.32495E+00
   0.35483E+00
   0.36514E+00
   0.33598E+00
   0.33598E+00
   0.36514E+00
   0.37545E+00
   0.34689E+00
   0.34689E+00
   0.37545E+00
   0.38588E+00
   0.35776E+00
   0.35776E+00
   0.38588E+00
   0.39648E+00
   0.36859E+00
   0.36859E+00
   0.39648E+00
   0.40728E+00
   0.37942E+00
   0.37942E+00
   0.40728E+00
   0.41827E+00
   0.39023E+00
   0.39023E+00
   0.41827E+00
   0.42942E+00
   0.40101E+00
   0.40101E+00
   0.42942E+00
   0.44066E+00
   0.41172E+00
   0.41172E+00
   0.44066E+00
   0.45193E+00
   0.42233E+00
   0.42233E+00
   0.45193E+00
   0.46316E+00
   0.43278E+00
   0.43278E+00
   0.46316E+00
   0.47426E+00
   0.44304E+00
   0.44304E+00
   0.47426E+00
   0.48518E+00
   0.45305E+00
   0.45305E+00
   0.48518E+00
   0.49585E+00
   0.46278E+00
   0.46278E+00
   0.49585E+00
   0.50624E+00
   0.47218E+00
   0.47218E+00
   0.50624E+00
   0.51630E+00
   0.48121E+00
   0.48121E+00
   0.51630E+00
   0.52601E+00
   0.48986E+00
   0.48986E+00
   0.52601E+00
   0.53533E+00
   0.49806E+00
   0.49806E+00
   0.53533E+00
   0.54424E+00
   0.50581E+00
   0.50581E+00
   0.54424E+00
   0.55271E+00
   0.51304E+00
   0.51304E+00
   0.55271E+00
   0.56069E+00
   0.51972E+00
   0.51972E+00
   0.56069E+00
   0.56814E+00